VARIABLES = density Y(OH) temp HeatRelease R theta
ZONE F=FEBLOCK ET=LINESEG N=6712 E=6711
0 0 0 0 0 0 0 0 0 0 0 0 0 0 0 0 0 0 0 0 0 0 0 0 0 0 0 0 0 0 0 0 0 0 0 0 0 0 1.05879e-22 1.05879e-22 1.05879e-22 0 0 0 0 0 0 0 0 0 0 0 0 0 0 0 0 0 0 0 0 0 0 0 0 0 0 0 0 0 0 0 0 0 0 0 0 0 0 0 0 0 0 0 0 0 0 0 0 0 0 0 0 0 0 0 0 0 0 0 
0 0 0 0 0 0 0 0 0 0 0 0 0 0 0 0 0 0 2.11758e-22 2.11758e-22 0 0 0 0 0 0 0 0 0 0 0 0 0 0 0 0 0 0 0 0 0 0 0 0 0 0 0 0 0 0 0 0 0 0 0 0 0 -1.05879e-22 0 0 0 0 0 0 0 0 0 2.64698e-23 0 0 0 0 0 0 0 -1.05879e-22 0 0 0 0 0 0 0 0 -2.64698e-23 2.11758e-22 0 0 0 0 0 0 0 0 0 0 0 0 0 0 
0 0 0 0 0 0 0 0 0 0 -4.1359e-25 0 0 0 0 0 0 0 0 0 0 0 0 0 0 -2.11758e-22 0 0 0 0 0 0 0 0 0 0 0 0 0 0 5.29396e-23 5.29396e-23 0 0 0 0 0 0 0 -2.11758e-22 0 0 0 0 0 0 0 0 5.29396e-23 0 0 -4.23516e-22 0 0 0 0 0 0 0 0 0 0 0 0 0 0 0 0 0 0 0 0 0 0 0 0 0 0 0 0 0 0 0 0 0 0 0 0 0 0 
0 0 0 0 0 0 0 0 0 0 0 0 0 0 0 0 0 0 0 0 0 0 0 0 0 0 0 0 0 0 0 0 0 0 0 0 0 0 0 0 0 0 0 0 0 0 0 0 4.23516e-22 4.23516e-22 0 0 0 0 0 0 0 0 0 0 0 0 0 0 0 0 0 0 0 0 0 0 5.29396e-23 0 0 0 0 0 0 0 0 0 0 0 0 0 1.05879e-22 0 0 0 0 0 0 0 0 0 0 0 0 5.29396e-23 
0 0 0 -1.05879e-22 0 0 0 0 0 0 0 0 2.11758e-22 0 0 0 0 0 0 0 0 0 0 0 0 0 0 0 0 0 0 0 0 0 0 0 0 0 0 0 0 0 0 0 0 0 0 0 0 0 0 -1.05879e-22 0 0 0 0 0 0 0 0 0 0 0 0 0 0 0 0 0 0 0 0 -2.11758e-22 0 0 0 0 0 0 0 0 0 0 2.11758e-22 0 0 0 0 0 0 0 0 0 0 0 0 0 0 0 0 
0 0 0 0 0 0 0 0 0 0 0 0 0 0 0 0 0 0 0 0 0 0 0 0 0 0 0 0 0 0 0 0 0 0 0 0 0 0 0 0 0 0 0 0 0 0 0 0 0 0 0 0 0 0 0 0 0 0 0 0 0 0 0 0 0 0 0 0 0 0 0 0 0 0 0 0 0 0 0 0 0 0 0 0 0 0 0 0 0 0 0 0 0 0 0 0 0 0 0 0 
0 0 0 0 0 0 0 0 0 0 0 0 0 0 0 0 0 0 0 0 0 0 0 0 0 0 0 0 0 0 0 0 0 0 0 0 0 0 0 0 0 0 0 0 0 0 0 0 0 0 0 0 0 0 0 0 0 0 0 0 0 0 0 0 0 0 0 0 0 0 0 0 0 0 0 0 0 0 0 0 0 0 0 0 0 0 0 0 0 0 0 0 0 0 0 0 0 0 0 0 
0 0 0 0 0 0 0 0 0 0 0 0 0 0 0 0 0 0 0 0 0 0 0 0 0 0 0 0 0 0 0 0 0 0 0 0 0 0 0 0 0 0 0 0 0 0 0 0 0 0 0 0 0 0 0 0 0 0 0 0 0 0 0 0 -4.23516e-22 0 0 0 0 0 0 0 0 0 0 0 0 0 0 0 0 0 0 0 0 0 0 0 0 -6.61744e-24 0 0 0 0 0 0 0 0 0 0 
0 0 0 0 0 0 0 0 0 0 0 0 0 0 0 0 0 0 0 0 0 0 0 0 0 0 1.05879e-22 0 0 0 0 0 0 0 0 0 0 0 0 0 0 0 0 0 0 0 0 0 0 0 0 0 0 0 0 0 0 0 0 0 0 0 0 0 0 0 0 0 0 0 0 0 0 0 0 0 0 0 0 0 0 0 0 0 0 0 0 0 0 0 0 0 0 0 0 0 0 0 0 0 
0 0 0 0 0 0 0 0 0 0 0 0 0 0 0 0 0 0 0 0 0 0 0 0 0 0 0 0 0 0 0 0 0 0 0 0 0 0 5.29396e-23 0 0 0 0 0 0 0 0 0 0 0 0 0 0 0 0 0 0 0 0 0 0 0 0 0 0 0 0 0 0 0 0 -5.29396e-23 5.29396e-23 5.29396e-23 0 0 0 0 0 0 0 0 0 0 0 0 0 0 0 0 0 0 0 0 0 0 0 0 0 0 
0 0 0 0 0 0 -4.23516e-22 -4.23516e-22 0 0 0 0 0 0 0 0 0 0 0 0 0 0 0 0 0 0 0 0 0 0 0 0 0 0 0 0 0 0 0 0 0 0 0 0 0 0 0 0 0 0 0 0 -2.11758e-22 -2.11758e-22 0 0 0 0 0 0 0 0 0 0 0 0 0 0 0 0 0 0 0 0 0 0 0 0 0 0 0 0 0 0 0 0 0 0 0 0 0 0 0 0 0 0 0 0 0 0 
0 0 0 0 0 0 0 0 0 0 0 0 0 0 0 0 0 0 0 0 0 0 0 0 0 0 0 0 0 0 0 0 0 0 0 0 0 0 0 0 0 0 0 0 0 0 0 -5.29396e-23 -5.29396e-23 -5.29396e-23 0 0 0 0 0 0 0 0 0 0 0 0 0 0 0 0 0 0 0 0 0 0 0 0 0 0 0 0 0 0 0 0 0 0 0 0 0 0 0 0 0 0 0 0 0 0 0 0 0 0 
0 0 0 0 0 0 0 0 0 0 0 0 0 0 0 0 0 0 0 0 0 0 0 0 0 0 0 0 0 0 0 0 0 0 0 0 0 0 0 0 0 0 0 0 0 0 0 0 0 0 0 0 0 0 0 0 0 0 0 0 0 0 0 0 0 0 0 0 0 0 0 0 0 0 0 0 0 0 0 0 0 0 0 0 0 0 0 0 0 0 0 0 0 0 0 0 0 0 0 0 
0 0 0 0 0 0 0 0 0 0 0 0 0 0 0 0 0 0 0 0 0 0 0 0 0 0 0 0 0 0 0 0 0 0 0 0 0 0 0 0 0 -1.05879e-22 0 0 0 0 0 0 0 0 0 0 0 0 0 0 0 0 0 0 0 0 0 0 0 0 0 0 0 0 0 0 0 0 0 0 0 0 0 0 0 0 0 0 0 0 0 0 0 0 0 0 0 0 0 0 0 0 0 0 
0 0 0 0 0 0 0 0 0 0 0 0 0 0 0 0 0 0 0 0 0 0 0 0 0 0 0 0 0 0 0 0 0 0 0 0 0 0 0 0 0 0 0 0 0 0 0 0 0 0 0 0 0 0 0 0 0 0 0 0 0 0 0 0 0 0 0 0 0 0 0 0 0 0 0 0 0 0 0 0 0 0 0 0 0 0 0 0 0 0 0 0 0 0 0 0 0 0 0 0 
0 0 0 0 0 0 0 0 0 0 0 0 0 0 0 0 0 0 0 0 0 0 0 0 0 0 0 0 0 0 0 0 0 0 0 0 0 0 0 0 0 0 0 0 0 1.05879e-22 1.05879e-22 0 0 0 0 0 0 0 0 0 0 0 0 0 0 0 0 0 0 0 0 0 0 0 0 0 0 0 0 0 0 0 0 0 0 0 0 0 0 0 0 0 0 0 0 0 0 0 0 0 0 0 0 0 
0 0 0 0 0 0 0 0 0 0 0 0 0 0 0 0 0 0 0 0 0 0 0 0 0 0 0 0 0 0 0 0 0 0 0 0 0 0 0 0 0 0 0 0 0 0 0 0 0 0 0 0 0 0 0 0 0 0 0 0 0 0 0 0 0 0 0 0 0 0 0 0 0 0 0 0 0 0 0 0 0 0 0 0 0 0 0 0 0 0 0 0 0 0 0 0 0 0 0 0 
0 0 0 0 0 0 0 0 0 0 0 0 0 0 0 0 0 0 0 0 0 0 0 0 0 0 0 0 0 4.23516e-22 4.23516e-22 0 0 0 0 0 0 0 0 0 0 0 0 2.11758e-22 0 0 0 0 0 0 0 0 0 0 -5.29396e-23 0 0 0 0 0 0 0 0 0 0 0 0 0 0 0 0 0 0 0 0 0 0 0 0 0 0 0 0 0 0 0 0 0 0 0 0 0 0 0 0 0 0 0 0 0 
0 0 0 0 0 0 0 0 0 0 0 0 0 0 0 0 0 0 0 0 0 0 0 0 0 0 0 0 0 0 0 0 0 0 0 0 0 0 0 0 0 0 0 0 0 0 0 0 0 0 0 0 0 0 0 0 0 0 0 0 0 0 0 0 0 0 0 0 0 0 0 0 0 0 0 0 0 0 0 0 0 0 0 0 0 0 0 0 0 -2.11758e-22 -2.11758e-22 0 0 0 0 0 0 0 0 0 
0 0 0 0 0 0 0 0 0 0 0 0 0 0 0 0 0 0 0 0 0 0 0 0 0 0 0 0 0 0 0 0 0 0 0 0 0 0 0 0 0 0 0 0 0 0 0 0 0 0 0 0 0 0 0 0 0 0 0 0 0 0 0 0 0 0 0 0 0 0 0 0 0 0 0 0 0 0 0 0 0 0 0 0 0 0 0 0 0 0 0 0 0 0 0 0 0 0 0 0 
0 0 0 0 0 0 0 0 0 0 0 0 0 0 0 0 0 0 0 0 0 0 0 0 0 0 0 0 0 0 0 0 0 0 0 0 0 0 0 0 -2.64698e-23 -2.64698e-23 0 0 0 0 0 0 0 0 0 0 0 0 0 0 0 0 0 0 0 0 0 0 0 0 0 0 0 0 0 0 0 0 0 0 0 0 0 0 0 0 0 0 0 0 0 0 0 0 0 0 0 0 0 0 0 0 0 0 
0 0 0 0 0 0 0 0 0 0 0 0 0 0 0 0 0 0 0 0 0 0 0 0 0 0 0 0 0 0 0 0 0 0 0 0 0 0 0 0 0 0 0 0 0 0 0 0 0 0 0 0 0 0 0 0 0 0 0 0 0 0 0 0 0 0 0 0 0 0 0 0 0 0 0 0 0 0 0 0 0 0 0 0 0 0 0 0 0 0 0 0 0 0 0 0 0 0 0 0 
0 0 0 0 0 0 0 0 0 0 0 0 0 0 0 0 0 0 0 0 0 0 0 0 0 0 0 0 0 0 0 0 0 0 0 -1.05879e-22 0 0 0 0 0 0 0 0 0 0 0 0 0 0 0 1.05879e-22 1.05879e-22 0 0 0 0 2.64698e-23 2.64698e-23 0 0 0 0 0 0 0 0 0 0 0 0 0 0 0 0 0 0 0 0 0 0 0 0 0 0 0 0 0 0 0 0 0 0 0 0 0 0 0 0 0 
0 0 0 0 0 0 0 0 0 0 0 0 0 0 0 0 0 0 0 0 0 0 0 0 0 0 0 0 0 0 0 0 0 0 0 0 0 0 0 0 0 0 0 0 0 0 0 0 0 0 0 0 0 0 0 0 0 0 0 0 0 0 0 0 0 0 0 0 0 0 0 0 0 0 0 0 0 0 0 0 0 0 0 0 0 0 0 0 0 0 0 0 0 0 0 0 0 0 0 0 
0 0 0 0 0 0 0 0 0 0 0 0 0 0 0 0 0 0 0 0 0 0 0 0 5.29396e-23 0 0 0 0 0 0 0 0 0 0 0 0 0 0 0 0 0 0 2.11758e-22 0 0 0 0 0 0 0 0 0 0 0 0 0 0 0 0 0 0 0 0 0 0 0 0 0 0 0 0 0 0 0 0 0 0 0 0 0 0 0 0 0 0 0 0 0 0 0 0 0 0 0 0 0 0 0 0 
0 0 0 0 0 0 0 0 0 0 0 0 0 0 0 0 0 0 0 0 0 0 0 0 0 0 0 0 0 0 3.30872e-24 0 0 0 0 0 0 0 0 0 0 0 0 0 0 0 0 0 0 0 0 0 0 0 0 0 0 0 0 0 0 0 0 -4.23516e-22 -4.23516e-22 0 0 4.23516e-22 4.23516e-22 0 0 0 0 0 0 0 0 0 0 0 0 0 0 0 0 0 0 0 2.64698e-23 0 0 0 0 0 0 0 0 0 0 0 
0 0 0 0 0 0 0 0 0 0 0 0 0 0 0 0 0 0 0 0 0 0 0 0 0 0 0 0 0 0 0 0 0 0 0 0 0 0 0 0 0 0 0 0 0 0 0 0 0 0 0 0 0 0 0 0 0 0 0 0 0 0 0 0 0 0 0 0 0 0 0 0 0 0 0 0 0 0 0 0 0 0 0 0 0 0 0 0 0 0 0 5.29396e-23 0 0 0 0 0 0 0 0 
0 0 0 0 0 0 0 0 0 0 0 0 0 0 0 0 0 0 0 0 0 0 0 0 0 0 0 0 0 0 0 0 0 0 0 0 0 0 0 0 0 0 0 0 0 0 0 0 0 0 0 0 0 0 0 0 0 0 0 0 0 0 0 0 0 0 0 0 0 0 0 0 0 0 0 0 0 0 0 0 0 0 0 0 0 0 0 0 0 0 0 0 0 0 0 0 0 0 0 0 
0 0 0 0 0 0 0 0 0 0 0 0 0 0 0 0 0 0 0 0 0 0 0 0 0 0 0 0 0 0 0 0 0 0 0 0 0 0 0 0 0 0 0 0 0 0 0 0 0 0 0 0 0 0 0 0 0 0 0 0 0 0 0 0 0 0 0 0 0 0 0 0 0 0 0 0 0 0 0 0 0 0 0 0 0 0 0 0 0 0 0 0 0 0 0 0 0 0 0 0 
0 0 0 0 0 0 0 0 0 0 0 0 0 0 0 0 0 0 0 0 0 0 0 0 0 0 0 0 0 0 0 0 0 0 0 0 0 0 0 0 0 0 0 0 0 0 0 0 0 0 0 0 0 0 0 0 0 0 2.11758e-22 0 0 0 0 0 0 0 0 0 0 0 0 0 0 0 0 0 0 0 0 4.23516e-22 0 0 0 0 0 0 0 0 0 0 0 0 0 0 0 0 -6.61744e-24 -6.61744e-24 -6.61744e-24 0 
0 0 0 0 0 0 0 0 0 0 0 0 0 0 0 0 0 0 0 0 0 0 0 0 0 0 -1.05879e-22 0 0 0 0 0 0 0 0 0 0 0 0 0 0 0 0 0 0 -2.11758e-22 0 0 0 0 -2.11758e-22 0 0 0 0 0 0 0 0 5.29396e-23 0 0 0 0 0 0 2.64698e-23 0 0 0 0 0 0 0 0 0 0 0 0 0 0 0 -5.29396e-23 -5.29396e-23 0 0 0 0 0 0 0 0 0 0 0 -2.64698e-23 0 0 0 0 
0 0 1.05879e-22 0 0 0 0 0 0 0 0 0 0 0 0 2.11758e-22 0 0 0 0 -2.11758e-22 0 0 0 0 0 0 5.29396e-23 0 0 0 0 0 0 0 0 0 0 0 0 0 0 0 0 0 0 0 0 0 0 0 0 0 0 0 0 0 0 0 0 0 0 0 0 0 0 0 0 0 0 0 0 0 0 0 0 -2.64698e-23 0 -1.05879e-22 -1.05879e-22 0 0 0 0 0 0 0 0 0 0 0 0 0 2.64698e-23 0 0 0 0 0 0 
0 1.32349e-23 0 0 0 0 0 2.64698e-23 0 0 0 0 0 0 -5.29396e-23 0 0 0 0 0 0 0 0 0 -1.05879e-22 0 0 0 0 0 0 0 0 0 0 -1.05879e-22 0 0 0 2.11758e-22 0 5.29396e-23 0 0 0 0 0 0 0 0 0 0 0 0 0 0 0 0 0 0 0 0 -2.64698e-23 0 -4.23516e-22 0 0 0 2.11758e-22 0 0 0 0 0 0 0 0 0 0 0 0 0 0 -1.05879e-22 0 0 0 0 0 0 0 0 0 0 0 0 0 0 0 0 
0 0 -1.05879e-22 0 0 1.05879e-22 0 0 0 0 0 0 0 0 0 0 0 0 0 0 0 0 0 0 0 0 0 0 0 0 0 0 0 0 0 0 0 0 0 0 0 0 0 0 0 0 0 0 0 0 0 0 0 0 0 1.05879e-22 1.05879e-22 0 0 0 0 0 0 0 0 5.29396e-23 0 0 0 0 0 0 0 -1.05879e-22 0 0 0 0 0 0 0 0 0 0 0 0 0 0 0 0 0 0 0 0 0 0 0 0 0 0 
0 0 0 2.11758e-22 0 0 0 0 0 -5.29396e-23 -5.29396e-23 0 0 0 0 0 0 0 0 0 0 0 0 0 0 0 0 0 0 0 0 0 0 0 0 0 0 0 0 0 0 2.11758e-22 0 0 0 0 0 0 0 0 0 0 0 0 0 0 0 0 0 0 0 -1.32349e-23 -1.32349e-23 0 0 0 0 0 0 0 0 0 0 0 0 0 0 0 0 0 0 0 0 0 0 0 0 0 0 0 0 0 0 0 0 -1.05879e-22 -1.05879e-22 0 0 0 
0 0 0 0 0 0 0 0 0 0 0 0 0 0 0 0 0 0 0 0 0 0 0 0 0 0 0 0 0 0 0 0 0 0 0 0 0 0 0 0 0 0 0 0 0 0 0 0 0 0 0 0 0 0 0 0 0 0 0 0 0 0 0 0 0 0 -1.05879e-22 -1.05879e-22 0 0 0 0 0 0 0 0 0 0 0 0 0 0 0 0 0 0 0 0 0 0 0 0 0 0 0 0 0 0 0 0 
0 0 0 0 0 -1.05879e-22 -1.05879e-22 0 0 0 0 0 0 0 0 0 0 0 0 0 0 0 0 0 0 0 0 0 0 0 0 0 0 0 -2.11758e-22 0 0 0 0 0 0 0 0 0 0 0 0 0 0 0 0 0 0 0 0 0 0 0 0 0 0 0 0 0 0 2.64698e-23 2.64698e-23 0 0 0 0 0 0 0 0 0 0 0 0 0 0 0 0 -2.11758e-22 -2.11758e-22 -2.11758e-22 0 0 0 0 0 0 0 0 0 0 0 0 0 0 
-2.11758e-22 0 0 0 0 0 0 0 0 0 0 0 -2.64698e-23 0 0 0 0 0 0 0 0 5.29396e-23 5.29396e-23 0 0 0 0 0 0 0 0 0 0 0 0 0 0 0 0 0 0 0 0 0 0 0 0 0 2.11758e-22 0 0 0 0 0 0 0 0 0 0 0 0 2.11758e-22 2.11758e-22 0 0 0 -4.23516e-22 0 0 0 0 0 0 0 0 0 0 0 0 0 0 0 0 0 0 1.05879e-22 0 0 0 0 0 0 0 0 0 0 0 0 0 0 
0 0 0 0 0 0 0 0 0 0 0 0 0 0 0 0 0 0 0 0 0 0 0 0 0 0 0 0 0 0 0 0 0 0 0 0 0 0 0 0 0 0 0 0 0 0 0 0 0 0 0 0 0 0 0 0 0 0 0 0 0 0 0 0 0 0 0 0 0 0 0 0 0 0 0 0 0 0 0 0 0 0 0 0 0 0 0 0 0 5.29396e-23 5.29396e-23 0 0 0 0 0 0 0 0 0 
0 0 0 0 0 0 0 0 0 0 0 0 0 0 0 0 0 0 0 0 0 0 0 0 0 0 0 0 0 0 0 0 0 0 0 0 0 0 0 0 0 0 0 0 0 0 0 0 0 0 0 0 0 0 0 0 0 0 0 0 0 0 0 0 0 0 0 0 0 0 0 0 0 0 0 0 0 0 0 0 0 0 0 0 0 0 0 0 0 0 0 0 0 0 0 0 0 0 0 0 
0 0 0 0 0 0 0 0 0 0 -4.23516e-22 -4.23516e-22 -4.23516e-22 0 0 0 0 0 0 0 0 0 0 0 0 0 0 0 0 0 0 0 0 0 0 0 0 0 0 0 0 0 0 0 0 0 0 0 0 0 0 0 0 0 0 0 0 0 0 0 0 0 -1.05879e-22 0 0 0 0 0 0 0 0 0 0 0 0 0 0 0 0 0 0 0 0 0 0 0 0 0 0 0 0 0 0 0 0 0 0 0 0 0 
0 0 0 0 0 0 0 0 0 0 0 0 0 -4.23516e-22 -4.23516e-22 -4.23516e-22 0 0 0 0 0 0 0 0 0 0 0 0 0 0 0 0 0 0 0 0 0 0 0 0 0 0 0 0 0 0 0 0 0 0 0 0 0 0 0 0 0 0 0 0 0 0 0 0 0 0 0 0 0 0 0 0 0 0 0 0 0 0 0 0 0 0 0 0 0 0 0 0 0 0 0 0 0 0 0 0 0 0 0 0 
0 0 0 0 0 0 0 0 0 0 0 0 0 0 0 0 0 0 0 0 0 0 0 0 0 0 0 0 0 0 0 0 0 0 0 0 0 0 0 0 0 0 0 0 0 0 0 0 0 0 0 0 0 0 0 0 0 0 0 0 0 4.23516e-22 4.23516e-22 0 0 0 0 0 0 0 0 0 0 0 0 0 0 0 0 0 0 0 0 0 0 0 0 0 0 0 0 0 0 0 0 0 0 0 0 0 
0 0 0 0 0 0 0 0 0 0 0 0 0 0 0 0 0 0 0 0 0 0 4.23516e-22 0 0 0 0 0 0 0 0 0 0 0 0 0 -2.11758e-22 0 0 0 0 0 0 0 0 -1.05879e-22 0 0 0 0 0 0 0 0 5.29396e-23 0 0 0 0 0 0 0 0 0 0 0 0 0 0 0 0 0 0 0 0 0 0 0 0 0 0 0 0 0 0 0 0 0 0 0 0 0 0 0 0 0 0 0 0 0 
0 0 0 0 0 0 0 0 0 0 0 0 0 0 0 0 0 0 0 0 0 0 0 0 0 0 0 0 0 0 0 0 0 0 0 0 0 0 0 0 0 0 0 0 0 0 0 0 0 0 0 0 0 0 0 0 0 0 0 0 0 0 0 0 0 0 0 0 0 0 0 0 0 0 0 0 0 0 0 0 0 0 0 0 0 0 0 0 0 0 0 0 0 0 0 0 0 0 0 0 
0 0 0 0 0 0 0 0 0 0 0 0 0 0 0 0 0 0 0 0 -1.05879e-22 -1.05879e-22 0 0 0 0 0 0 0 0 0 0 0 0 0 0 0 0 0 0 0 0 0 0 0 0 0 0 0 0 0 0 0 0 0 0 0 0 0 0 0 0 0 0 0 0 0 0 0 0 0 0 0 0 0 0 0 0 0 0 0 0 0 0 0 0 0 0 0 0 0 0 0 0 0 0 0 0 0 0 
0 0 0 0 0 0 0 0 0 0 0 0 0 0 0 0 0 0 0 0 0 0 0 0 0 0 0 0 0 0 0 0 0 0 0 0 0 0 0 0 0 0 0 0 0 0 0 0 0 0 0 0 0 0 0 0 0 0 0 0 0 0 0 0 0 0 0 0 0 0 0 0 0 0 0 0 0 0 0 0 0 0 0 0 0 0 0 0 0 -2.11758e-22 0 0 0 0 0 0 0 0 0 0 
0 0 0 0 4.23516e-22 4.23516e-22 4.23516e-22 4.23516e-22 0 0 0 0 0 0 0 0 0 0 0 0 0 0 0 0 -1.05879e-22 1.05879e-22 0 0 0 0 0 0 0 0 0 0 0 0 0 0 0 -1.05879e-22 0 0 0 0 0 0 0 0 0 0 0 0 0 0 0 0 -2.11758e-22 0 0 0 0 -2.11758e-22 0 0 0 0 0 0 0 0 0 0 0 0 0 0 0 0 0 0 0 0 0 0 0 0 0 0 0 0 0 0 0 0 0 0 0 0 
0 0 0 0 0 0 0 0 0 0 0 0 0 0 0 0 0 0 0 0 0 0 0 0 0 0 0 0 0 0 0 0 0 0 0 0 0 0 0 0 0 0 0 0 -5.29396e-23 0 0 0 0 0 -1.05879e-22 0 0 1.05879e-22 0 0 0 0 0 0 0 0 0 0 0 0 0 0 0 0 0 0 0 0 0 0 0 0 0 0 0 0 0 0 0 0 0 0 0 0 0 0 0 0 0 0 0 0 0 0 
0 2.11758e-22 0 0 0 0 0 0 0 0 0 0 0 0 0 0 0 0 0 0 0 0 0 0 0 0 0 0 0 0 0 0 0 0 0 0 0 0 0 0 0 0 0 0 0 0 0 0 0 0 0 0 0 0 0 0 0 0 0 0 0 0 0 0 0 0 0 0 -5.29396e-23 -5.29396e-23 0 0 0 0 0 0 0 0 0 0 0 0 0 0 0 0 0 0 0 0 0 0 0 0 0 0 0 0 0 0 
0 0 0 0 0 0 0 0 0 0 0 0 0 0 -2.11758e-22 -2.11758e-22 0 0 0 0 0 0 0 0 0 0 0 0 0 0 0 0 0 0 0 0 0 0 0 0 0 0 0 0 0 0 0 0 0 0 0 0 0 0 0 0 0 0 0 0 0 0 0 0 0 0 0 0 0 0 0 0 0 0 0 0 0 0 0 0 0 0 0 0 0 0 0 0 0 0 0 0 0 0 0 0 0 0 0 0 
0 0 0 0 0 0 0 0 0 0 0 0 0 0 0 0 0 0 0 0 0 0 0 0 0 0 0 0 0 0 0 0 0 0 0 0 0 0 0 0 0 0 0 0 0 0 0 0 0 0 0 0 0 0 0 0 0 0 0 0 0 0 0 0 -4.23516e-22 0 0 0 0 0 0 0 0 0 0 0 0 0 0 0 0 0 0 0 0 0 0 0 0 4.23516e-22 0 0 0 0 0 0 0 0 0 0 
0 0 0 0 0 0 0 0 0 0 0 0 0 0 0 0 0 0 0 0 0 0 0 0 0 0 0 0 0 0 0 0 0 0 0 0 0 0 0 0 0 0 0 0 0 0 0 0 0 0 0 0 0 0 0 0 0 0 0 0 0 0 0 0 0 0 0 0 0 0 0 0 0 0 0 0 0 0 0 0 0 0 0 0 0 0 0 0 0 0 0 0 0 0 0 0 0 0 0 0 
0 0 0 0 0 0 0 0 0 0 0 0 0 0 0 0 0 0 0 0 0 0 0 0 0 0 0 4.23516e-22 4.23516e-22 0 0 0 0 0 0 0 0 0 0 0 0 0 0 0 0 0 0 0 0 0 0 0 0 0 0 0 0 0 0 0 1.05879e-22 0 0 0 0 0 0 0 0 0 0 0 0 0 0 0 0 0 0 0 0 0 0 0 0 0 0 0 0 0 0 0 0 0 0 0 0 0 0 0 
0 0 0 0 0 0 0 0 0 0 0 0 0 0 0 0 0 0 0 0 -2.64698e-23 0 0 0 0 0 0 0 0 0 0 0 0 0 0 0 0 0 0 0 0 0 0 0 0 0 0 0 0 0 0 0 0 0 0 0 0 0 0 0 0 0 0 0 0 0 0 0 0 0 0 0 0 0 0 0 0 0 0 0 0 0 0 0 0 0 0 -3.30872e-24 0 0 0 0 0 0 0 0 0 0 0 0 
0 0 0 0 0 0 0 0 0 0 0 0 0 0 0 0 0 0 0 0 0 0 0 0 0 0 0 0 0 0 0 0 0 0 0 0 0 0 0 0 0 0 0 0 0 0 0 0 0 0 0 0 0 0 0 0 0 0 0 0 0 0 0 0 0 0 0 0 0 0 0 0 0 0 0 0 0 0 0 0 0 0 0 0 0 0 0 0 0 0 0 0 0 0 0 0 0 0 0 0 
0 0 0 0 0 0 0 0 -4.23516e-22 -4.23516e-22 -4.23516e-22 -4.23516e-22 -4.23516e-22 -4.23516e-22 0 0 0 0 0 0 0 0 0 0 0 0 0 0 0 0 0 0 0 0 0 0 0 0 0 0 0 0 0 0 0 0 0 0 0 0 0 0 0 0 0 0 0 0 0 0 0 0 0 0 0 0 0 0 0 0 0 0 0 0 0 0 0 0 0 0 0 0 0 0 0 0 0 0 0 0 0 0 0 0 0 0 0 0 0 0 
0 0 0 0 0 0 0 0 0 0 0 0 -1.32349e-23 0 0 0 0 0 0 0 0 0 0 0 0 0 0 0 0 0 0 0 0 0 0 0 0 0 0 0 0 0 0 0 0 0 0 0 0 0 0 0 0 0 0 0 0 0 0 0 0 0 0 0 0 0 0 0 0 0 0 0 0 0 0 0 0 0 0 0 0 0 0 0 0 0 0 0 0 0 0 0 0 0 0 0 0 0 0 0 
0 0 0 0 0 0 0 0 0 0 0 0 0 0 0 0 0 0 0 0 0 0 0 0 0 0 0 0 0 0 0 0 0 0 0 0 0 0 0 0 0 0 0 0 0 0 0 0 0 0 0 0 0 0 0 0 0 0 0 0 0 0 0 0 0 0 0 0 0 0 0 0 0 0 0 0 0 0 0 4.23516e-22 0 0 0 0 0 0 0 0 0 0 0 0 0 0 0 0 0 0 0 0 
0 0 0 0 0 0 0 0 0 0 0 0 0 0 0 0 0 0 0 0 0 0 0 0 0 0 0 0 0 0 0 0 0 0 0 0 0 0 0 0 0 0 0 0 0 0 0 0 0 0 0 0 0 0 0 0 0 0 0 0 0 0 0 0 0 0 0 0 0 0 0 0 0 0 0 0 0 0 0 0 0 0 0 0 0 0 0 0 0 0 0 0 0 0 0 0 0 0 0 0 
0 0 0 0 0 0 0 0 0 0 0 0 0 0 0 0 0 0 0 0 0 0 0 0 0 0 0 0 0 0 0 0 0 0 0 0 0 0 0 0 0 0 0 0 0 0 0 0 0 0 0 0 0 0 0 0 0 0 0 0 0 0 0 0 0 0 0 0 0 0 0 0 0 0 0 0 0 0 0 0 0 0 0 0 0 0 0 0 0 0 0 0 0 0 0 0 0 0 0 0 
0 0 0 0 0 0 0 0 0 0 0 0 0 0 0 0 0 0 0 0 0 0 0 0 0 0 0 0 0 0 0 0 0 0 0 0 0 0 0 0 0 0 0 0 0 0 0 0 0 0 0 0 0 0 0 0 0 0 0 0 0 0 0 0 0 0 0 0 0 0 0 0 0 0 0 0 0 0 0 0 0 0 0 0 0 0 0 0 0 0 0 0 0 0 0 0 0 0 0 0 
0 0 0 0 0 0 0 0 0 0 0 0 0 0 0 0 0 0 0 0 0 0 0 0 0 0 0 0 0 0 0 0 0 0 0 0 0 0 0 0 0 0 0 0 0 0 0 0 0 0 0 0 0 0 0 0 0 0 0 0 0 0 0 0 0 0 0 0 0 -4.23516e-22 0 0 0 0 0 0 0 0 0 0 0 0 0 0 0 0 0 0 0 0 0 0 0 0 0 0 0 0 0 0 
0 0 0 0 0 0 0 0 0 0 0 0 0 0 0 0 0 0 0 0 0 0 0 0 0 0 0 0 0 0 0 0 0 0 0 0 0 0 0 0 0 0 0 0 0 0 4.23516e-22 0 0 0 0 0 0 0 0 0 0 0 0 0 0 0 0 0 0 0 0 0 0 0 0 0 0 0 0 0 0 0 0 0 0 0 0 0 0 0 0 0 0 0 0 0 0 0 0 0 0 0 0 0 
0 0 0 0 0 0 0 0 0 0 0 0 0 0 0 0 0 0 0 0 0 0 0 0 0 0 0 0 0 5.29396e-23 0 0 2.11758e-22 0 0 0 0 0 0 0 0 0 0 0 0 0 0 0 0 0 0 0 0 0 0 0 0 0 0 0 0 0 0 0 0 0 0 0 0 0 0 0 0 0 0 0 0 0 0 0 0 0 0 0 0 0 0 0 0 0 0 0 0 0 0 0 0 0 -4.23516e-22 -4.23516e-22 
0 0 0 0 0 0 0 0 0 0 0 0 0 0 0 0 0 0 0 0 0 0 0 0 0 0 0 0 0 0 0 0 0 2.11758e-22 0 0 0 0 0 4.23516e-22 0 0 0 0 0 0 0 0 0 0 0 0 0 5.29396e-23 0 0 0 0 0 0 0 0 0 4.23516e-22 0 0 0 0 0 0 0 0 0 0 0 0 0 0 0 0 0 0 0 0 0 0 0 0 0 5.29396e-23 5.29396e-23 0 0 0 0 0 0 0 2.11758e-22 0 
0 0 0 1.05879e-22 0 0 0 0 0 0 0 0 0 0 0 0 0 0 0 0 0 0 0 1.05879e-22 0 0 0 0 0 0 0 0 0 0 0 0 0 0 0 0 0 0 0 0 0 0 0 0 0 0 0 0 0 0 0 0 0 0 0 0 0 0 0 0 0 0 0 0 0 0 0 0 0 0 0 0 0 0 0 0 0 0 0 0 0 0 0 0 0 0 0 0 0 0 0 0 0 0 0 0 
0 0 0 0 0 0 0 0 0 0 0 0
-0.00068519 -0.000684967 -0.00068474 -0.000684489 -0.000684229 -0.000683946 -0.000683645 -0.000683324 -0.000683012 -0.0006825 -0.000682444 -0.000682355 -0.000682091 -0.000682053 -0.00068178 -0.000681473 -0.000681171 -0.000680835 -0.000680498 -0.000680128 -0.000679754 -0.000679342 -0.000678919 -0.000678455 -0.000677985 -0.0006775 -0.00067744 -0.000677119 -0.000677086 -0.000676745 -0.000676369 -0.000675949 -0.000675532 -0.000675064 -0.000674594 -0.000674067 -0.000673533 -0.000672933 -0.000672651 -0.0006725 -0.000672386 -0.000672283 -0.000671928 -0.000671482 -0.000670982 -0.000670483 -0.000669919 -0.000669352 -0.000668689 -0.000668011 -0.000667593 -0.0006675 -0.00066705 -0.000666815 -0.000666233 -0.000665662 -0.000664999 -0.000664349 -0.000663545 -0.000662756 -0.000662539 -0.0006625 -0.000661932 -0.000661455 -0.000660757 -0.000660096 -0.000659304 -0.000658553 -0.00065802 -0.0006575 -0.000657266 -0.000657006 -0.00065626 -0.000655567 -0.00065471 -0.000653916 -0.00065328 -0.0006525 -0.000652402 -0.000652144 -0.000651275 -0.000650485 -0.000649498 -0.000648599 -0.000648213 -0.0006475 -0.000647257 -0.000646691 -0.000645711 -0.000644839 -0.00064378 -0.000642826 -0.000642606 -0.0006425 -0.000642291 -0.000641677 -0.000640678 -0.000639542 -0.000638543 -0.000638357 
-0.0006375 -0.000637273 -0.000636355 -0.000635021 -0.000633941 -0.000633694 -0.0006325 -0.000632457 -0.000631437 -0.000630036 -0.000628889 -0.000627581 -0.000627502 -0.0006275 -0.000626246 -0.000626244 -0.000624958 -0.000623714 -0.000623427 -0.0006225 -0.000622358 -0.000622034 -0.000620553 -0.000619245 -0.000618505 -0.00061773 -0.0006175 -0.000616655 -0.000616259 -0.000614604 -0.000614573 -0.000613073 -0.0006125 -0.000611323 -0.000610687 -0.00060975 -0.000609063 -0.000608057 -0.000607509 -0.0006075 -0.000604635 -0.0006025 -0.000601571 -0.000600319 -0.000599958 -0.000599638 -0.000598398 -0.000597869 -0.0005975 -0.00059539 -0.000593312 -0.000592904 -0.000592753 -0.0005925 -0.000590693 -0.000589882 -0.000588972 -0.000588766 -0.00058802 -0.000588016 -0.000587804 -0.000587847 -0.000588195 -0.000588378 -0.000589088 -0.000589952 -0.000590727 -0.0005925 -0.000592996 -0.000593564 -0.000595481 -0.0005975 -0.000598301 -0.000599508 -0.000601172 -0.0006025 -0.000604097 -0.00060669 -0.000607156 -0.0006075 -0.000609888 -0.0006125 -0.000612849 -0.000612891 -0.000613313 -0.00061553 -0.0006175 -0.000618364 -0.000618392 -0.000619485 -0.000621039 -0.0006225 -0.000623707 -0.000623713 -0.000625235 -0.000626367 -0.0006275 -0.000628954 -0.000630763 -0.000631615 
-0.0006325 -0.000634172 -0.000636365 -0.000636943 -0.000637282 -0.0006375 -0.00063957 -0.0006425 -0.000642505 -0.000642507 -0.000642511 -0.000645171 -0.0006475 -0.000648234 -0.000648361 -0.00064949 -0.000651236 -0.0006525 -0.000654398 -0.0006575 -0.000657885 -0.000657971 -0.000658948 -0.000661406 -0.0006625 -0.000665161 -0.0006675 -0.000669096 -0.0006725 -0.000673343 -0.000675269 -0.000677476 -0.0006775 -0.000677921 -0.000680044 -0.000682458 -0.0006825 -0.000682987 -0.000685161 -0.000687463 -0.0006875 -0.000688119 -0.000690463 -0.000692482 -0.0006925 -0.000693458 -0.000693599 -0.0006975 -0.000699925 -0.0007025 -0.000707402 -0.0007075 -0.000707506 -0.000707681 -0.0007125 -0.000716049 -0.0007175 -0.000718355 -0.0007225 -0.000723338 -0.000723276 -0.000725453 -0.000724995 -0.000725877 -0.000725763 -0.000725183 -0.000724751 -0.00072408 -0.000723459 -0.000722741 -0.000722609 -0.0007225 -0.000721831 -0.00072126 -0.000720521 -0.000719738 -0.000718981 -0.000718198 -0.000717765 -0.0007175 -0.000716937 -0.000716559 -0.000715752 -0.000714955 -0.000714165 -0.000713389 -0.000712863 -0.0007125 -0.000712084 -0.000711811 -0.000711 -0.000710243 -0.000709493 -0.00070877 -0.000708103 -0.0007075 -0.000707402 -0.000707343 -0.00070662 -0.000705934 
-0.000705251 -0.000704607 -0.000703957 -0.000703341 -0.000702956 -0.0007025 -0.000702364 -0.000702119 -0.000701514 -0.000700949 -0.00070038 -0.000699855 -0.00069932 -0.000698824 -0.00069832 -0.000697857 -0.000697816 -0.0006975 -0.000697382 -0.000696933 -0.000696481 -0.000696078 -0.000695661 -0.000695292 -0.000694911 -0.00069458 -0.000694233 -0.00069394 -0.000693627 -0.000693373 -0.000693145 -0.000693003 -0.000692851 -0.000692718 -0.0006925 -0.000692398 -0.000692344 -0.00069204 -0.000691912 -0.000691766 -0.000691692 -0.000691554 -0.000691457 -0.000691426 -0.000691368 -0.000691377 -0.00069137 -0.000691415 -0.000691428 -0.000691441 -0.000691524 -0.00069158 -0.00069171 -0.000691791 -0.000691983 -0.00069207 -0.000692352 -0.000692389 -0.0006925 -0.00069283 -0.000692945 -0.00069344 -0.000693723 -0.000694165 -0.00069453 -0.000694984 -0.000695379 -0.00069572 -0.000695859 -0.000696273 -0.000696805 -0.000697069 -0.0006975 -0.000697936 -0.000698156 -0.000699358 -0.000700117 -0.000700785 -0.000701372 -0.000702258 -0.000702394 -0.0007025 -0.000704319 -0.000705668 -0.000706473 -0.000706974 -0.0007075 -0.000709133 -0.000710472 -0.000712226 -0.0007125 -0.000714866 -0.000717122 -0.0007175 -0.000720865 -0.0007225 -0.000725915 -0.0007275 -0.000728902 -0.0007325 
-0.000733492 -0.000735013 -0.000736508 -0.0007375 -0.000738893 -0.000739931 -0.000741004 -0.0007425 -0.00074299 -0.000743213 -0.000743218 -0.000744593 -0.000745698 -0.000746305 -0.0007468 -0.0007475 -0.000747945 -0.000748166 -0.000749394 -0.000750165 -0.000750946 -0.000751562 -0.0007525 -0.000752563 -0.000752604 -0.000754009 -0.000754773 -0.000755533 -0.000756292 -0.000757183 -0.000757387 -0.0007575 -0.000758758 -0.000759566 -0.000760366 -0.00076123 -0.000761249 -0.000762129 -0.000762392 -0.0007625 -0.000763869 -0.00076478 -0.000765691 -0.000766579 -0.0007675 -0.000767633 -0.000767754 -0.000769592 -0.000770646 -0.000771717 -0.000772301 -0.0007725 -0.000773938 -0.000775094 -0.000776279 -0.000777135 -0.0007775 -0.000778773 -0.000780081 -0.000781418 -0.000782268 -0.0007825 -0.000784306 -0.000785814 -0.000787361 -0.0007875 -0.000787516 -0.000789109 -0.000790882 -0.000792103 -0.0007925 -0.000794856 -0.0007975 -0.000799598 -0.0008025 -0.000805936 -0.0008075 -0.000809309 -0.0008125 -0.000814749 -0.0008175 -0.000818028 -0.000819747 -0.00082029 -0.0008209 -0.000821445 -0.000821676 -0.00082192 -0.000822008 -0.000822036 -0.000822069 -0.00082187 -0.000821878 -0.000821595 -0.000821561 -0.000821214 -0.000820874 -0.000820761 -0.000820617 -0.000820256 
-0.000820099 -0.000819761 -0.000819596 -0.000819277 -0.00081911 -0.000818812 -0.00081865 -0.000818376 -0.000818126 -0.000818097 -0.000817969 -0.000817793 -0.000817601 -0.000817547 -0.0008175 -0.000817178 -0.000817091 -0.00081678 -0.000816563 -0.000816431 -0.000816329 -0.000816155 -0.000816083 -0.000815948 -0.000815907 -0.000815813 -0.000815796 -0.00081573 -0.000815748 -0.000815725 -0.000815779 -0.000815794 -0.000815889 -0.000815951 -0.000816078 -0.000816172 -0.000816346 -0.000816491 -0.000816716 -0.000816915 -0.000817197 -0.000817392 -0.000817458 -0.0008175 -0.000817564 -0.000817708 -0.000817929 -0.000818218 -0.000818489 -0.000818833 -0.000819161 -0.000819573 -0.000819967 -0.000820442 -0.000820898 -0.00082146 -0.000822003 -0.000822244 -0.0008225 -0.000822809 -0.000823113 -0.000823705 -0.000824279 -0.000824954 -0.000825608 -0.000826402 -0.000827173 -0.00082737 -0.0008275 -0.000828127 -0.000828682 -0.000829532 -0.000830361 -0.000831346 -0.000832307 -0.000832461 -0.0008325 -0.000833391 -0.00083417 -0.000835249 -0.000836305 -0.00083697 -0.0008375 -0.000838118 -0.000838601 -0.000839852 -0.000841069 -0.00084187 -0.0008425 -0.000843219 -0.000843762 -0.000845225 -0.000846654 -0.000847181 -0.0008475 -0.000848723 -0.000849741 -0.000851223 -0.0008525 -0.000852933 
-0.000853148 -0.000854986 -0.000856789 -0.000857271 -0.0008575 -0.000859269 -0.000860753 -0.000861769 -0.0008625 -0.000864009 -0.000865223 -0.000866509 -0.0008675 -0.000869011 -0.000870195 -0.000871511 -0.0008725 -0.000874347 -0.000875824 -0.000876847 -0.0008775 -0.00088 -0.000880806 -0.000882277 -0.0008825 -0.000882622 -0.000885 -0.0008875 -0.000889202 -0.000890352 -0.000891702 -0.0008925 -0.000895 -0.0008975 -0.000899711 -0.000901147 -0.000902211 -0.0009025 -0.000905 -0.0009075 -0.00091 -0.0009125 -0.000915 -0.0009175 -0.00092 -0.0009225 -0.000925 -0.0009275 -0.00093 -0.0009325 -0.000935 -0.0009375 -0.000939047 -0.000939805 -0.000941547 -0.0009425 -0.000945 -0.0009475 -0.000948274 -0.000948609 -0.000950774 -0.0009525 -0.000953764 -0.000954706 -0.000956264 -0.0009575 -0.000958725 -0.000959718 -0.000961225 -0.0009625 -0.000963433 -0.000964214 -0.000965933 -0.0009675 -0.000968058 -0.000968537 -0.000970558 -0.0009725 -0.000972769 -0.000973037 -0.000975269 -0.0009775 -0.000977877 -0.000978372 -0.000980377 -0.0009825 -0.000983746 -0.000985313 -0.000986246 -0.0009875 -0.00099 -0.0009925 -0.000993491 -0.00099524 -0.000995991 -0.0009975 -0.001 -0.0010025 -0.001005 -0.00100744 
-0.0010075 -0.00100907 -0.00100991 -0.00101 -0.0010125 -0.001015 -0.0010175 -0.00102 -0.0010225 -0.001025 -0.00102666 -0.0010275 -0.00102824 -0.00102869 -0.00103 -0.0010325 -0.001035 -0.0010375 -0.00104 -0.0010425 -0.001045 -0.00104647 -0.0010475 -0.00104775 -0.00104802 -0.00105 -0.0010525 -0.001055 -0.0010575 -0.00106 -0.0010625 -0.00106254 -0.00106436 -0.00106504 -0.0010675 -0.00107 -0.0010725 -0.001075 -0.00107658 -0.0010775 -0.00107765 -0.0010779 -0.00108 -0.0010825 -0.001085 -0.00108696 -0.0010875 -0.00108817 -0.00108891 -0.00109 -0.0010925 -0.001095 -0.00109679 -0.0010975 -0.00109767 -0.001098 -0.0011 -0.0011025 -0.00110367 -0.00110615 -0.00110617 -0.0011075 -0.00111 -0.0011124 -0.0011125 -0.00111381 -0.00111483 -0.001115 -0.0011175 -0.00111835 -0.00112047 -0.00112085 -0.0011225 -0.001125 -0.00112649 -0.00112665 -0.0011275 -0.00112906 -0.00112953 -0.00113238 -0.0011325 -0.00113288 -0.00113506 -0.00113683 -0.0011375 -0.00113776 -0.00114021 -0.00114248 -0.0011425 -0.00114256 -0.00114479 -0.00114698 -0.0011475 -0.00114838 -0.00114911 -0.00115118 -0.00115132 -0.0011525 -0.00115324 -0.00115514 
-0.00115688 -0.00115747 -0.0011575 -0.00115866 -0.00116042 -0.00116197 -0.0011625 -0.00116305 -0.00116357 -0.00116513 -0.00116651 -0.00116718 -0.0011675 -0.00116788 -0.00116929 -0.00117056 -0.00117172 -0.0011722 -0.0011725 -0.00117289 -0.00117411 -0.00117521 -0.00117622 -0.00117688 -0.00117718 -0.0011775 -0.00117764 -0.00117812 -0.00117907 -0.00117997 -0.00118073 -0.00118145 -0.00118188 -0.00118212 -0.00118249 -0.0011825 -0.00118347 -0.00118414 -0.00118469 -0.00118522 -0.00118567 -0.00118609 -0.00118646 -0.00118679 -0.00118692 -0.00118711 -0.00118727 -0.0011875 -0.00118759 -0.00118763 -0.001188 -0.00118808 -0.00118826 -0.00118834 -0.00118839 -0.0011884 -0.00118838 -0.00118829 -0.00118828 -0.00118823 -0.00118809 -0.00118796 -0.00118781 -0.00118756 -0.00118752 -0.0011875 -0.0011871 -0.00118682 -0.00118656 -0.00118625 -0.00118592 -0.00118554 -0.00118516 -0.00118468 -0.00118422 -0.00118364 -0.00118308 -0.00118306 -0.0011825 -0.00118242 -0.00118199 -0.00118149 -0.00118096 -0.00118038 -0.00117978 -0.00117909 -0.00117839 -0.00117809 -0.0011775 -0.00117733 -0.00117699 -0.00117639 -0.00117576 -0.00117506 -0.00117433 -0.00117351 -0.00117263 -0.00117258 -0.0011725 -0.00117188 
-0.00117129 -0.0011706 -0.00116984 -0.00116906 -0.00116819 -0.00116774 -0.0011675 -0.00116699 -0.0011667 -0.00116605 -0.00116532 -0.0011646 -0.00116376 -0.00116298 -0.00116286 -0.0011625 -0.00116221 -0.00116216 -0.00116164 -0.00116098 -0.00116039 -0.00115968 -0.00115906 -0.00115829 -0.00115766 -0.00115752 -0.0011575 -0.00115708 -0.00115697 -0.00115662 -0.00115607 -0.00115562 -0.00115506 -0.00115461 -0.00115404 -0.00115362 -0.00115313 -0.0011525 -0.00115245 -0.00115234 -0.00115201 -0.0011517 -0.00115164 -0.00115143 -0.00115111 -0.00115087 -0.00115059 -0.00115035 -0.00115009 -0.00114986 -0.0011496 -0.00114936 -0.00114909 -0.00114884 -0.00114856 -0.00114819 -0.00114801 -0.0011475 -0.00114746 -0.00114741 -0.00114706 -0.00114681 -0.0011467 -0.00114647 -0.00114614 -0.00114576 -0.00114537 -0.00114495 -0.0011445 -0.00114401 -0.00114348 -0.0011425 -0.0011425 -0.00114236 -0.00114202 -0.0011418 -0.00114125 -0.00114066 -0.00114004 -0.00113938 -0.00113866 -0.00113786 -0.00113758 -0.0011375 -0.00113715 -0.00113695 -0.00113644 -0.00113571 -0.00113492 -0.00113408 -0.00113317 -0.00113268 -0.0011325 -0.00113228 -0.00113205 -0.00113147 -0.00113064 -0.00112975 -0.00112879 -0.00112775 
-0.0011275 -0.00112687 -0.00112687 -0.001126 -0.00112508 -0.00112412 -0.0011231 -0.0011225 -0.00112244 -0.00112213 -0.0011213 -0.00112044 -0.00111954 -0.00111862 -0.00111765 -0.0011175 -0.0011173 -0.00111687 -0.00111613 -0.0011154 -0.00111465 -0.00111392 -0.00111316 -0.00111254 -0.0011125 -0.00111199 -0.0011119 -0.00111143 -0.00111097 -0.00111057 -0.00111019 -0.00110987 -0.00110956 -0.00110929 -0.00110905 -0.00110887 -0.0011087 -0.00110857 -0.00110845 -0.00110836 -0.00110828 -0.0011082 -0.00110814 -0.00110808 -0.00110802 -0.00110795 -0.00110789 -0.00110781 -0.00110773 -0.00110756 -0.00110754 -0.0011075 -0.00110741 -0.00110733 -0.00110728 -0.00110721 -0.00110708 -0.00110694 -0.00110679 -0.00110663 -0.00110646 -0.00110626 -0.00110604 -0.00110581 -0.00110555 -0.00110528 -0.00110499 -0.00110467 -0.00110432 -0.00110394 -0.0011035 -0.00110303 -0.00110251 -0.0011025 -0.00110233 -0.00110214 -0.00110176 -0.00110136 -0.00110093 -0.00110045 -0.00109992 -0.00109935 -0.00109871 -0.001098 -0.00109771 -0.0010975 -0.00109733 -0.00109723 -0.00109681 -0.00109625 -0.00109562 -0.00109493 -0.00109415 -0.00109325 -0.00109258 -0.0010925 -0.00109187 -0.00109167 -0.00109092 -0.00109009 